NAME,formula,CAS-nr.,Tc / K,Pc / kPa,vc / cm3 mol-1,??i
5-ETHYL-2-METHYLPYRIDINE,C8H11N,104-90-5,662,3343.725,427,0.4267
DECANOIC ACID,C10H20O2,334-48-5,726,2097.428,638,0.8774
OCTAMETHYLTRISILOXAN,C8H24O2Si3,107-51-7,562.9,1419.563,880,0.531
OCTAMETHYLCYCLOTETRASILOXANE,C8H24O4Si4,556-67-2,586.5,1324.318,970,0.5867
ISOQUINOLINE,C9H7N,119-65-3,803,4600.155,442,0.2564
QUINALDINE,C10H9N,91-63-4,787,4904.13,471,0.3967
DIPHENYL ETHER,C12H10O,101-84-8,766,3141.075,504,0.44
4-METHYLQUINOLINE,C10H9N,491-35-0,797,4650.818,498,0.4792
7-METHYLQUINOLINE,C10H9N,612-60-2,797,4802.805,490,0.421
1-UNDECANOL,C11H24O,112-42-5,702,2198.753,718,0.6724
HEXADECANE,C16H34,544-76-3,722.4,1401.325,1034,0.742
M-TERPHENYL,C18H14,1992-06-08,883,2480,724.3,0.638
"1,2,4-TRIMETHYLBENZENE",C9H12,95-63-6,649.1,3232.267,430,0.3771
"1,2,3-TRIMETHYLBENZENE",C9H12,526-73-8,664.5,3455.182,430,0.3669
DIETHYLENE GLYCOL MONOPROPYL ETHER,C7H16O3,6881-94-3,687,2999.22,518.7,0.5547
TRIMETHYLAMINE,C3H9N,75-50-3,433.2,4073.265,254,0.195
1-DODECANOL,C12H26O,112-53-8,717,1994,718,0.7202
SULFOLANE,C4H8O2S,126-33-0,855,5029.773,336.5,0.3463
MONOETHANOLAMINE,C2H7NO,141-43-5,667.12,7573.03,196,0.5684
NONYLBENZENE,C15H24,1081-77-2,741,1899.996,790,0.6095
CHLOROPERFLUOROETHANE [R115],C2ClF5,76-15-3,353.05,3125.8,252,0.2493
"1,2-DICHLOROTETRAFLUOROETHANE [R114]",C2Cl2F4,76-14-2,418.85,3269.758,293.1,0.246
DICHLOROFLUOROMETHANE [R21],CHCl2F,75-43-4,451.6,5167.575,197,0.202
HEPTADECANE,C17H36,629-78-7,735.9,1341.543,1103,0.7564
4-METHYL-3-PENTEN-2-ONE,C6H10O,141-79-7,597,3749.025,278,0.4004
"2-BUTYNE-1,4-DIOL",C4H6O2,110-65-6,691.67,5860.638,260,1.1282
DIISOBUTYL ETHER,C8H18O,628-55-7,562,2549.996,485,0.4179
"2,2,3,3-TETRAFLUORO-1-PROPANOL",C3H4F4O,76-37-9,557.2,4850,266.8,0.5383
"3,4-DIMETHYLPYRIDINE",C7H9N,583-58-4,683.8,4123.928,351,0.341
"2,4,6-TRIMETHYLPYRIDINE",C8H11N,108-75-8,645,3201.87,427,0.4099
METHANETHIOL,CH4S,74-93-1,470,7234.605,145,0.1488
DIMETHYL ETHER,C2H6O,0115-10-06,400,5370.225,164,0.2033
METHYL CHLORIDE,CH3Cl,74-87-3,416.3,6677.318,139,0.1485
1-UNDECENE,C11H22,821-95-4,637,1996.103,626,0.518
PHTHALIC ACID DIETHYL ESTER,C12H14O4,84-66-2,762.15,2330,642,0.7011
1-HEXYNE,C6H10,0693-02-07,539.29,3762.197,331,0.146
"2,2-DIMETHYLPROPIONALDEHYDE",C5H10O,630-19-3,523,3688.23,320,0.2999
"2-METHYL-2,3-EPOXYBUTANE",C5H10O,5076-19-7,534.8,3399.454,301,0.196
PYRROLIDINE,C4H9N,123-75-1,568.6,5613.405,249,0.2742
"2,3-DIMETHYL-2-BUTENE",C6H12,563-79-1,524,3363.99,351,0.239
ISOPROPYLCYCLOHEXANE,C9H18,696-29-7,640,2837.1,470,0.237
TRIFLUOROACETIC ACID,C2HF3O2,1976-05-01,491.3,3258.004,204,0.54
1-HEPTENE,C7H14,592-76-7,537.2,2837.1,405,0.3316
"1,5-HEXADIENE",C6H10,592-42-7,507,3445.05,328,0.2417
BUTANOIC ACID PROPYL ESTER,C7H14O2,105-66-8,592.5,2799.61,442,0.4484
1-PENTYNE,C5H8,627-19-0,493.4,4053,278,0.164
DOCOSANE,C22H46,629-97-0,787,980,1252,0.9423
ETHOXYBENZENE,C8H10O,103-73-1,647,3424.775,389,0.4153
OCTYL ACETATE,C10H20O2,112-14-1,661,1985.97,653.8,0.537
"1,4-BUTANEDIOL",C4H10O2,110-63-4,727,6222,297,0.714
2-HEXANONE,C6H12O,591-78-6,587,3323.46,374,0.3877
"1,1,1,2-TETRACHLOROETHANE [R130A]",C2H2Cl4,630-20-6,626,4468.432,333,0.269
PENTACHLOROETHANE,C2HCl5,1976-01-07,646,3536.243,376,0.3478
GAMMA-BUTYROLACTONE,C4H6O2,96-48-0,731,5131,244,0.3425
3-METHYLHEPTANE,C8H18,589-81-1,563.6,2550.35,464,0.3712
O-METHYLANILINE,C7H9N,95-53-4,710,4650.818,343,0.4017
"1,1,2,2-TETRABROMOETHANE",C2H2Br4,79-27-6,806,6258.845,402,0.361
METHYL OLEATE,C19H36O2,112-62-9,774.09,1278.3,1092,0.9388
"2,4,6-TRIMETHYL-1,3,5-TRIOXANE",C6H12O3,123-63-7,579,3499.766,365,0.4298
NONADECANE,C19H40,629-92-5,756,1160,1087,0.8486
DIMETHYL OXALATE,C4H6O4,553-90-2,628,3982.072,326,0.558
PERFLUOROMETHYLCYCLOHEXANE,C7F14,0355-02-02,486.7,2330.475,570.1,0.4857
3-METHYL-2-PENTANONE,C6H12O,565-61-7,579,3310.288,368,0.338
"3,3-DIMETHYL-2-BUTANONE",C6H12O,75-97-8,571.5,3470,371,0.2882
"2,4-DIMETHYL-3-PENTANONE",C7H14O,565-80-0,582,3384.255,415,0.4
2-METHYL-1-BUTANOL,C5H12O,137-32-6,571,3850.35,322,0.6137
"2,2-DIMETHYL-1-PROPANOL",C5H12O,75-84-3,549,3951.675,319,0.62
2-PENTANOL,C5H12O,6032-29-7,561.15,3870.605,329,0.6263
3-METHYL-2-BUTANOL,C5H12O,598-75-4,556.1,3870,327,0.5149
TERT-PENTANOL,C5H12O,75-85-4,545,3710,319,0.4646
3-METHYL-3-PENTANOL,C6H14O,77-74-7,575.6,3520,380,0.5061
3-HEXANOL,C6H14O,623-37-0,582.48,3360,382.7,0.5934
(+-)-2-HEXANOL,C6H14O,626-93-7,586.15,3310.004,384,0.5998
1-BROMO-2-CHLORO ETHANE,C2H4BrCl,107-04-0,605,5491.815,262,0.236
"1,3-DICHLOROPROPANE",C3H6Cl2,142-28-9,610.3,4247.544,300,0.2614
DIBROMOMETHANE [R30B2],CH2Br2,74-95-3,583,6499.999,211,0.3029
FORMAMIDE,CH3NO,1975-12-07,771,7799.999,125,0.4378
DIPHENYLAMINE,C12H11N,122-39-4,931.15,8140,520,0.3047
O-CHLOROTOLUENE,C7H7Cl,95-49-8,635,4014.496,369,0.4322
ETHYL BENZOATE,C9H10O2,93-89-0,697,3242.4,451,0.48
PROPYL BROMIDE,C3H7Br,106-94-5,539,4798,272,0.2517
1-PROPOXY-2-PROPANOL,C6H14O2,1569-01-03,605.1,3051,398,0.4966
PERFLUOROCYCLOHEXANE,C6F12,355-68-0,457.2,2431.8,489,0.4782
3-METHYL BUTYRIC ACID,C5H10O2,503-74-2,629,3394.388,336,0.7598
METHYL BUTANOATE,C5H10O2,623-42-7,554.4,3475.447,340,0.382
1-HEXADECANOL,C16H34O,36653-82-4,770,1460.093,937,0.8156
1-OCTADECANOL,C18H38O,112-92-5,790,1279.735,1047,0.8661
N-UNDECANE,C11H24,1120-21-4,638.4,1948.48,688.6,0.535
2-METHYLOCTANE,C9H20,3221-61-2,582.8,2310.21,541,0.4499
"2,3,4-TRIMETHYL PENTANE",C8H18,565-75-3,566.4,2729.696,460,0.317
PENTADECANE,C15H32,629-62-9,707,1479.345,966,0.6897
PROPYLENE CARBONATE,C4H6O3,108-32-7,762.7,4140,250,0.4107
OCTYLBENZENE,C14H22,2189-60-8,728,2036.633,720,0.5634
"1,3-PROPANEDIOL",C3H8O2,504-63-2,718.2,6550,241,0.6309
1-BUTYLNAPHTHALENE,C14H16,1634-09-09,791.75,2591.893,610,0.5141
1-ETHYLNAPHTHALENE,C12H12,1127-76-0,775.6,3100.545,553,0.3767
"1,6-HEXANEDIOL",C6H14O2,0629-11-08,700,3000,398,0.9606
1-OCTYNE,C8H14,629-05-0,598.46,3100.545,441,0.2619
2-ETHYL HEXANOIC ACID,C8H16O2,149-57-5,674.6,2776.305,548,0.8176
HEPTANOIC ACID,C7H14O2,111-14-8,679,2877.63,466,0.7297
ISOPROPYL BROMIDE,C3H7Br,75-26-3,525.6,5530.319,264,0.2645
P-CHLOROTOLUENE,C7H7Cl,106-43-4,640,4004.364,362,0.4228
1-DODECENE,C12H24,112-41-4,657,1854.247,681,0.5192
VALERALDEHYDE,C5H10O,110-62-3,566.1,3971.94,313.2,0.3304
HEXANAL,C6H12O,66-25-1,591,3455.182,378,0.3847
HEPTANAL,C7H14O,111-71-7,614,3232.267,434,0.4258
OCTANAL,C8H16O,124-13-0,638.1,2958.69,488,0.4318
NONANAL,C9H18O,124-19-6,656,2690.179,543,0.5132
INDENE,C9H8,95-13-6,695.15,3799.688,368.5,0.2571
2-METHYLHEXANE,C7H16,591-76-4,530.4,2739.828,421,0.33
"2,4-DIMETHYLHEXANE",C8H18,589-43-5,553.5,2560.483,472,0.343
TERT-BUTYLBENZENE,C10H14,1998-06-06,660,2968.822,489.8,0.265
"1,2-DIHYDROXYBENZENE",C6H6O2,120-80-9,770,6494.932,292,0.5145
M-PHENYLENEDIAMINE,C6H8N2,108-45-2,815,4799.765,322,0.558
TETRAHYDROPYRAN,C5H10O,142-68-7,572.2,4772.407,263,0.218
TRICHLOROACETIC ACID,C2HCl3O2,1976-03-09,685,5099.687,293,0.5911
"1,2-DICYANOETHANE",C4H4N2,110-61-2,770,3540.295,300,0.5949
"2,7-DIMETHYLOCTANE",C10H22,1072-16-8,602.9,2097.428,590,0.4459
ETHYLCYCLOPENTANE,C7H14,1640-89-7,569.5,3400.467,375,0.2708
ISOPROPYLCYCLOPENTANE,C8H16,3875-51-2,601,2999.22,426,0.24
DECALIN <ISOMER NOT SPECIFIED>,C10H18,91-17-8,645.15,2010,485,0.4155
"2,3-DIMETHYL-1-BUTENE",C6H12,563-78-0,501,3242.4,343,0.221
NONANOIC ACID,C9H18O2,112-05-0,712,2350.74,594,0.7603
O-DICHLOROBENZENE,C6H4Cl2,95-50-1,697.3,4103.663,360,0.272
M-METHYLANILINE,C7H9N,108-44-1,709,4154.325,343,0.4078
"1,3-DIHYDROXYBENZENE",C6H6O2,108-46-3,810,6750.272,292,0.6413
METHYL TERT-BUTYL ETHER,C5H12O,1634-04-04,497.1,3434.918,319,0.267
"1,4-PENTADIENE",C5H8,591-93-5,478,3789.555,276,0.1473
METHYL PROPYL ETHER,C4H10O,557-17-5,472,3800.701,274,0.3107
METHYL ISOPROPYL ETHER,C4H10O,598-53-8,464.5,3759.157,277,0.2633
ACETANILIDE,C8H9NO,103-84-4,825,4701.48,407,0.6168
1-TETRADECANOL,C14H30O,112-72-1,743,1669.836,826,0.781
2-METHYLPIPERIDINE,C6H13N,0109-05-07,598,3799.688,340,0.2669
DIPENTYL ETHER,C10H22O,693-65-2,627,1996.103,611,0.5315
"CIS-1,2-DIMETHYLCYCLOHEXANE",C8H16,2207-01-04,606,2938.425,422,0.2323
CYCLOPENTENE,C5H8,142-29-0,507,4801.792,245,0.194
1-METHYLCYCLOHEXENE,C7H12,591-49-1,584.2,3566.64,353.6,0.2576
O-CHLOROANILINE,C6H6ClN,95-51-2,730,4600.155,337,0.373
M-CHLOROANILINE,C6H6ClN,108-42-9,753,5005.455,337,0.4071
P-CHLOROANILINE,C6H6ClN,106-47-8,756,4448.168,337,0.417
2-NITROANILINE,C6H6N2O2,88-74-4,800,5501.947,370,0.708
3-NITROANILINE,C6H6N2O2,1999-09-02,840,5005.455,370,0.63
4-NITROANILINE,C6H6N2O2,0100-01-06,870,5501.947,370,0.764
METHYL TERT-AMYL ETHER,C6H14O,0994-05-08,534,3113.717,377,0.3103
TRANS-2-OCTENE,C8H16,13389-42-9,580,2766.172,460,0.35
DEUTERIUM OXIDE,D2O,7789-20-0,644,21663.29,55.6,0.388
HEXYL ACETATE,C8H16O2,142-92-7,618.4,2381.138,523.9,0.5042
INDANE,C9H10,0496-11-07,684.9,3789.555,383.5,0.2913
"1,3-DIMETHYL NAPHTHALENE",C12H12,575-41-7,781.2,3313.328,534,0.4126
"1,4-DIMETHYL NAPHTHALENE",C12H12,571-58-4,790.2,3363.99,534,0.3933
1-PENTADECANOL,C15H32O,629-76-5,757,1599.922,882,0.8072
"2,2'-DIETHANOLAMINE",C4H11NO2,111-42-2,715,3269.758,333,1.0463
METHYL PENTANOATE,C6H12O2,624-24-8,579,3090.413,396,0.3481
ETHYL VALERATE,C7H14O2,539-82-2,593.3,2654.715,451,0.3552
BUTYL VALERATE,C9H18O2,591-68-4,636,2087.295,561,0.4786
ISOPROPYL BUTYRATE,C7H14O2,0638-11-09,579,2614.185,443,0.325
ALLYLCYANIDE,C4H5N,109-75-1,585,3951.675,265,0.3596
TRIFLUOROBROMOMETHANE [R13B1],CBrF3,75-63-8,340.2,3971.94,200,0.1687
"1,1-DIFLUOROETHANE [R152A]",C2H4F2,75-37-6,386.35,4515.7,181,0.2586
ETHANETHIOL,C2H6S,1975-08-01,499,5491.815,207,0.186
SEC-BUTYLAMINE,C4H11N,13952-84-6,511,3969.995,282,0.2998
SEC-BUTYL CHLORIDE,C4H9Cl,78-86-4,520.6,3951.665,305,0.3
SEC-BUTYLCYCLOHEXANE,C10H20,7058-01-07,669,2674.98,522,0.264
"1,2-HEPTENOXIDE",C7H14O,5063-65-0,610,2705.378,417,0.3282
ANTHRACENE,C14H10,0120-12-07,873.1,3404.52,554,0.5159
PHENANTHRENE,C14H10,1985-01-08,873.1,3171.472,554,0.4734
2-OCTANOL,C8H18O,123-96-6,637,2735.775,494,0.52
CIS-2-PENTENE,C5H10,627-20-3,476,3597.038,292,0.233
"2,4-DIMETHYLANILINE",C8H11N,95-68-1,714,4002.338,402,0.4972
TRIBUTYLAMINE,C12H27N,102-82-9,643,1823.85,731,0.5884
1-PROPYL NAPHTHALENE,C13H14,2765-18-6,781.15,2923.226,566.9,0.456
HEXYLBENZENE,C12H18,1077-16-3,695.4,2554.403,582.6,0.529
BUTANENITRILE,C4H7N,109-74-0,585.4,3819.953,285,0.3325
"1-CHLORO-1,2,2,2-TETRAFLUOROETHANE [R124]",C2HClF4,2837-89-0,395.65,3718.628,245.7,0.3003
ETHYLENIMINE,C2H5N,151-56-4,528,7700.7,150,0.3139
"CIS-1,3-PENTADIENE",C5H8,1574-41-0,488,3989.996,275,0.2552
ISOBUTYL FORMATE,C5H10O2,542-55-2,549,3556.507,352,0.3725
2-OCTANONE,C8H16O,111-13-7,629,2624.318,497,0.479
2-METHYL-1-PENTANOL,C6H14O,105-30-6,582,3400.467,380,0.7262
TRIPROPYLAMINE,C9H21N,102-69-2,600,2229.15,566,0.452
PENTYLBENZENE,C11H16,538-68-1,679.9,2604.053,550,0.4274
VINYL PROPIONATE,C5H8O2,105-38-4,546,3680.124,323,0.3691
TETRAHYDROTHIOPHENE,C4H8S,110-01-0,632,5167.575,264.8,0.1988
TRIETHANOLAMINE,C6H15NO3,102-71-6,787,2450.039,446,1.1008
BENZO(B)THIOPHENE,C8H6S,95-15-8,752.1,3880.747,375.8,0.2927
O-ANISIDINE,C7H9NO,90-04-0,728,5846.453,367,0.5558
TERT-BUTYL BROMIDE,C4H9Br,507-19-7,540.5,4793.686,310,0.2454
4-ALLYL-2-METHOXYPHENOL,C10H12O2,97-53-0,778.7,4105,500,0.4526
2-ETHYLPYRIDINE,C7H9N,100-71-0,634,4103.663,372,0.3512
TETRAFLUOROMETHANE [R14],CF4,75-73-0,227.5,3738.893,140,0.176
CIS-2-HEXENE,C6H12,7688-21-3,512,3201.87,351,0.288
SQUALANE,C30H62,0111-01-03,795.9,509.665,1645,1.2135
BENZYLCYANIDE,C8H7N,140-29-4,745,4002.338,397,0.4131
TRANS-2-HEXENE,C6H12,4050-45-7,508,3120.81,351,0.299
TRANS-3-HEXENE,C6H12,13269-52-8,510,3282.93,351,0.292
1-NITROBUTANE,C4H9NO2,0627-05-04,625,3800.002,338,0.4004
CARBON DIOXIDE,CO2,124-38-9,304.2,7376.46,94,0.2252
METHANE,CH4,74-82-8,190.6,4600.155,99,0.008
OXYGEN,O2,7782-44-7,154.6,5045.985,73.4,0.021
ETHYLENE,C2H4,74-85-1,282.35,5041.628,129,0.085
ETHANE,C2H6,74-84-0,305.4,4883.865,148,0.098
PROPYLENE,C3H6,0115-07-01,365,4620.42,181,0.148
NITROGEN,N2,7727-37-9,126.2,3394.388,89.5,0.04
CARBON MONOXIDE,CO,630-08-0,132.9,3475.447,93.1,0.049
ARGON,Ar,7440-37-1,150.8,4873.732,74.9,-0.004
CHLORINE,Cl2,7782-50-5,417,7700.7,124,0.073
KRYPTON,Kr,7439-90-9,209.4,5501.947,91.2,-0.002
DINITROGEN MONOXIDE,N2O,10024-97-2,309.6,7244.738,97.4,0.1733
XENON,Xe,7440-63-3,289.7,5836.32,118,0.002
HYDROGEN,H2,1333-74-0,33.2,1296.96,65,-0.22
ETHYNE,C2H2,74-86-2,308.3,6140.295,113,0.184
HYDROGEN SULFIDE,H2S,7783-06-04,372.8,8936.865,98.5,0.1
"1,1,1-TRIFLUOROETHANE [R143A]",C2H3F3,420-46-2,346.25,3759.157,194,0.2619
FLUOROFORM [R23],CHF3,75-46-7,299.05,4752.143,133,0.2528
BENZYL BENZOATE,C14H12O2,120-51-4,825,2533.125,694,0.547
"2,2,2-TRIFLUOROETHANOL",C2H3F3O,75-89-8,499.29,4839.991,205.4,0.6307
3-HEPTANONE,C7H14O,106-35-4,602,2920.186,430,0.4346
CIS-3-HEXENE,C6H12,7642-09-03,517,3282.93,350,0.225
"2,2-DIMETHYLPENTANE",C7H16,590-35-2,520.5,2770.226,416,0.289
"1,1-DICHLOROETHYLENE",C2H2Cl2,75-35-4,489,4679.999,219,0.1705
4-METHYL-HEPTANE,C8H18,589-53-7,561.7,2540.218,476,0.369
1-CHLORODODECANE,C12H25Cl,112-52-7,714.9,1852.221,746,0.621
"3,5-DIMETHYLPYRIDINE",C7H9N,591-22-0,667.3,3951.675,355,0.349
"TRANS-1,4-DIMETHYLCYCLOHEXANE",C8H16,2207-04-07,587.7,2938.425,450,0.2502
DI-TERT-BUTYL ETHER,C8H18O,6163-66-2,550,2459.999,494.9,0.3327
DIISOPENTYL ETHER,C10H22O,0544-01-04,614,2148.09,595,0.523
4-DIMETHYLAMINOTOLUENE,C9H13N,99-97-8,695,3749.025,457,0.529
2-DIMETHYLAMINOTOLUENE,C9H13N,609-72-3,667,3121,457,0.395
BICYCLOHEXYL,C12H22,92-51-3,731.4,2614.185,577,0.3979
"2,2,4,4,6,8,8-HEPTAMETHYLNONANE",C16H34,4390-04-09,692,1469.213,880,0.5256
"1,3,5-TRIFLUOROBENZENE",C6H3F3,372-38-3,530.9,3953.702,304,0.3056
"1,2-DIFLUOROBENZENE",C6H4F2,0367-11-03,565.5,4580.903,290,0.2945
"1,3-DIFLUOROBENZENE",C6H4F2,372-18-9,543.1,4308.339,296.7,0.3161
"1,4-DIFLUOROBENZENE",C6H4F2,540-36-3,557.75,4397.505,296.7,0.2843
"1,2,3,4-TETRAFLUOROBENZENE",C6H2F4,551-62-2,550.75,3790.568,315.2,0.339
"1,2,3,5-TETRAFLUOROBENZENE",C6H2F4,2367-82-0,535.15,3746.999,310,0.3417
"1,2,4,5-TETRAFLUOROBENZENE",C6H2F4,327-54-8,543.35,3800.701,310,0.355
PENTAFLUOROBENZENE,C6HF5,363-72-4,531,3531.176,319.3,0.373
"1,3-CYCLOHEXADIENE",C6H8,592-57-4,559,4450.194,277,0.2
BROMOPENTAFLUOROBENZENE,C6BrF5,0344-04-07,601,3039.75,415,0.355
OCTADECANE,C18H38,593-45-3,747.7,1292,1189,0.8087
CHLOROPENTAFLUOROBENZENE,C6ClF5,344-07-0,570.81,3238.347,384.8,0.4
"1,4-DICHLOROBUTANE",C4H8Cl2,110-56-5,646.7,3694.309,350,0.3064
"1,5-DICHLOROPENTANE",C5H10Cl2,628-76-2,673.6,3267.731,406,0.3546
"1,6-DICHLOROHEXANE",C6H12Cl2,2163-00-0,692.5,2930.319,461,0.4227
2-METHOXY TOLUENE,C8H10O,578-58-5,662,1291.894,392,0.1965
"1,3-BUTANEDIOL",C4H10O2,107-88-0,676,4020,306.4,0.7206
VALERONITRILE,C5H9N,110-59-8,603,3259.625,331,0.4152
1-OCTANAMINE,C8H19N,111-86-4,641,2617,517,0.4509
DIMETHYL SULFIDE,C2H6S,75-18-3,503,5532.345,203.7,0.19
N-TRIDECANOL,C13H28O,112-70-9,732,1790.413,771,0.6942
"2,6-DIMETHYLOCTANE",C10H22,2051-30-1,603.1,2149.995,576,0.4442
DIFLUOROMETHANE [R32],CH2F2,1975-10-05,351.55,5830.241,121,0.271
BROMOCHLOROMETHANE [R30B1],CH2BrCl,74-97-5,558,6180.825,207,0.193
2-PYRROLIDONE,C4H7NO,616-45-5,799,6342.935,250,0.4434
"2,4-TOLUENE DIISOCYANATE",C9H6N2O2,584-84-9,745.2,3538.83,419,0.5441
P-METHYLANILINE,C7H9N,106-49-0,667.15,2305,351,0.4426
4-TERT-BUTYLPHENOL,C10H14O,98-54-4,730,3300.155,480,0.5335
9H-FLUORENE,C13H10,86-73-7,822.32,2989.088,550,0.4196
DIPHENYLENIMINE,C12H9N,86-74-8,900.05,3240.373,525,0.4876
FLUORANTHENE,C16H10,206-44-0,916.11,2573.655,655,0.516
TRICHLOROFLUOROMETHANE [R11],CCl3F,75-69-4,471.15,4407.638,248,0.188
"3,4-DIMETHYLHEXANE",C8H18,583-48-2,568.8,2690.179,466,0.338
"2,5-DIMETHYLPHENOL",C8H10O,95-87-4,706.9,4863.6,350,0.5474
"3,4-DIMETHYLPHENOL",C8H10O,95-65-8,729.8,4964.925,350,0.5602
M-DICHLOROBENZENE,C6H4Cl2,541-73-1,684,3850.35,359,0.2728
TETRAETHOXYSILANE,C8H20O4Si,1978-10-04,592.2,2044.7,657,0.6248
P-TERPHENYL,C18H14,92-94-4,908,2990,728.8,0.6532
ISOBUTYLBENZENE,C10H14,538-93-2,650,3049.883,489.8,0.3694
2-BUTYNE,C4H6,503-17-3,488.6,4900,221,0.1078
HEXAFLUOROETHANE [R116],C2F6,76-16-4,293.04,3041.777,221.9,0.229
PENTAFLUOROETHANE [R125],C2HF5,354-33-6,339.45,3595.011,210,0.3003
BENZOYLCHLORIDE,C7H5ClO,98-88-4,697,4060.093,367,0.4205
BROMODIFLUOROMETHANE [R22B1],CHBrF2,1511-62-2,411.98,5132.01,167,0.2051
BROMOCHLORODIFLUOROMETHANE [R12B1],CBrClF2,353-59-3,426.9,4245.518,230,0.184
TRIACONTANE,C30H62,638-68-6,857,636,1693,1.26
2-METHYLHEPTANE,C8H18,592-27-8,559.7,2499.688,488,0.378
"3,3-DIMETHYLPENTANE",C7H16,562-49-2,536.4,2949.571,414,0.27
OCTACOSANE,C28H58,0630-02-04,845.4,727.513,1583,1.195
ISOBUTYRONITRILE,C4H7N,78-82-0,565,3760.171,278,0.3384
OCTADECANOIC ACID ETHYL ESTER,C20H40O2,111-61-5,781.54,1198.1,1167,0.9408
1-AMINOPENTANE,C5H13N,110-58-7,555,3576.772,346,0.407
DIBUTYLSULFIDE,C8H18S,544-40-1,650,2499.688,536,0.4277
DIMETHYL DISULFIDE,C2H6S2,624-92-0,615,4799.998,260,0.1869
DIETHYL DISULFIDE,C4H10S2,110-81-6,642,3499.999,370,0.3086
N-ETHYLANILINE,C8H11N,103-69-5,698.3,4002.338,402,0.471
ALPHA-AMINOTOLUENE,C7H9N,100-46-9,686,4802.805,347,0.435
"1,2-DIETHOXYETHANE",C6H14O2,629-14-1,542,3220,411,0.65
TETRACOSANE,C24H50,646-31-1,802.62,896.726,1362,1.0411
HEXATRIACONTANE,C36H74,0630-06-08,901,682,2025,1.5125
DOTRIACONTANE,C32H66,544-85-4,851.44,597.818,1800,1.3585
"2,2-DIMETHYLHEXANE",C8H18,590-73-8,549.8,2530.085,478,0.338
"2,2,4-TRIMETHYLHEXANE",C9H20,16747-26-5,573.7,2371.005,526,0.3471
"2,5-DIMETHYLHEXANE",C8H18,592-13-2,550,2489.555,482,0.352
TETRAETHYLENE GLYCOL,C8H18O5,112-60-7,800,3199.843,571,0.8143
"2-ETHYL-2-HYDROXYMETHYL-1,3-PROPANEDIOL",C6H14O3,77-99-6,709,3909.929,416,1.2871
HELIUM,He,7440-59-7,5.3,232.034,57.8,-0.387
NEON,Ne,7440-01-09,44.4,2756.04,41.7,-0.0414
SULFUR HEXAFLUORIDE,F6S,2551-62-4,318.7,3760.171,198.8,0.1499
SULFUR DIOXIDE,O2S,7446-09-05,430.8,7883.085,122,0.251
ETHYL VINYL ETHER,C4H8O,109-92-2,475.37,4075,260,0.2868
2-NONANONE,C9H18O,821-55-6,651.9,2482,254,0.5072
HENEICOSANE,C21H44,629-94-7,778,1030,1200,0.9049
PYRROLE,C4H5N,109-97-7,625.15,5490,214,0.3255
"1,1-DIMETHYLCYCLOPENTANE",C7H14,1638-26-2,547,3445.05,360,0.273
CAPRYLONITRILE,C8H15N,0124-12-09,674.4,2850,506,0.4892
BUTYL VINYL ETHER,C6H12O,111-34-2,540.5,3200,380.6,0.342
HYDROGEN IODIDE,HI,10034-85-2,423.15,8298.518,131,0.05
IODOBENZENE,C6H5I,591-50-4,721,4519.095,351,0.246
"2,3-DIMETHYLHEXANE",C8H18,584-94-1,563.5,2630.397,468,0.346
PERFLUOROPROPANE [R218],C3F8,76-19-7,345.05,2680.046,299,0.3257
DEUTERIUM,D2,7782-39-0,38.4,1659.997,60.3,-0.13
TETRAFLUOROETHYLENE,C2F4,116-14-3,306.5,3940.002,172,0.223
P-METHYLPROPYLBENZENE,C10H14,1074-55-1,660.7,2845.206,482,0.3856
NITROSYLCHLORIDE,ClNO,2696-92-6,440,9119.25,139,0.318
CHLOROTRIFLUOROETHYLENE,C2ClF3,79-38-9,379,4053,212,0.2464
NITROGEN OXIDE,NO,10102-43-9,180,6479.997,58,0.588
PERFLUORO-2-PROPANONE,C3F6O,684-16-2,357.14,2837.1,328.8,0.365
CARBONYL SULFIDE,COS,463-58-1,378.3,6302.415,135.1,0.099
SEC-BUTYL ACETATE,C6H12O2,105-46-4,560,3124.863,388,0.403
ACETIC ACID PHENYL ESTER,C8H8O2,122-79-2,685.7,3590,397,0.4335
ETHYL CHLOROACETATE,C4H7ClO2,105-39-5,618,3899.999,330,0.4
4-FLUOROTOLUENE,C7H7F,352-32-9,589.9,3949.649,331,0.3103
"1,2-ETHANEDIOL-MONOACETATE-MONOETHYL ETHER",C6H12O3,111-15-9,607.3,3161.34,443.5,0.5443
2-N-MONOMETHYLAMINOETHANOL,C3H9NO,109-83-1,630,5300,255.4,0.6022
1-TETRADECENE,C14H28,1120-36-1,689,1560.405,791,0.644
ETHYL TERT-BUTYL ETHER,C6H14O,637-92-3,509.4,2933.931,394,0.3194
FLUOROETHANE [R161],C2H5F,353-36-6,375.3,5025.72,169,0.2153
"1-CHLORO-1,1-DIFLUOROETHANE [R142B]",C2H3ClF2,75-68-3,410.35,4048,228,0.2316
METHYLHYDRAZINE,CH6N2,60-34-4,567,8039.997,271,0.3901
DINITROGEN TETROXIDE,N2O4,10544-72-6,431,10132.5,167,0.8539
NITROGEN TRIFLUORIDE,F3N,7783-54-2,234,4529.228,124,0.1021
PROPYL SILICATE,C12H28O4Si,0682-01-09,647.7,1696.2,867,0.7546
METHYL FLUORIDE [R41],CH3F,593-53-3,317.8,5876.85,110,0.1774
METHYL BROMIDE [R40B1],CH3Br,74-83-9,467,8265.79,156,0.1642
P-METHYL-STYRENE,C9H10,622-97-9,669,3303.195,402,0.283
1-ETHYL-2-METHYLBENZENE,C9H12,611-14-3,651.5,3140,439.9,0.3197
1-ETHYL-3-METHYLBENZENE,C9H12,620-14-4,645.1,3248.48,490,0.3319
1-ETHYL-4-METHYLBENZENE,C9H12,622-96-8,638.7,3230,439.9,0.3731
"1,2,3,4-TETRAMETHYLBENZENE",C10H14,488-23-3,700.5,3273.811,435.7,0.3879