NAME,formula,CAS-nr.,Tc / K,Pc / kPa,vc / cm3 mol-1,??i
ACETALDEHYDE,C2H4O,75-07-0,461,5572.875,154,0.303
ACETAMIDE,C2H5NO,60-35-5,761,6600.31,215,0.451
ACETONITRILE,C2H3N,1975-05-08,548,4833.203,173,0.321
ACETONE,C3H6O,67-64-1,508.1,4701.48,209,0.309
ETHYLENEDIAMINE,C2H8N2,107-15-3,593,6282.15,206,0.51
"1,2-DIBROMOETHANE",C2H4Br2,106-93-4,646,5335.774,252,0.225
ETHYL BROMIDE,C2H5Br,74-96-4,503.8,6231.488,215,0.254
"1,2-ETHANEDIOL",C2H6O2,107-21-1,720,8200.232,186,0.5254
ETHYL IODIDE,C2H5I,1975-03-06,565,5542.478,240,0.161
ETHANOL,C2H6O,64-17-5,516.2,6383.475,167,0.635
DIETHYL ETHER,C4H10O,60-29-7,466.7,3637.568,280,0.281
ETHYLENE OXIDE,C2H4O,75-21-8,469,7194.075,140,0.2
2-PROPEN-1-OL,C3H6O,107-18-6,545,5714.73,203,0.5717
FORMIC ACID,CH2O2,64-18-6,588,5810,118,0.3222
FORMIC ACID ETHYL ESTER,C3H6O2,109-94-4,508.4,4742.01,229,0.283
ANILINE,C6H7N,62-53-3,699,5309.43,270,0.382
METHYL PHENYL ETHER,C7H8O,100-66-3,647.4,4174.59,341,0.3288
2-METHYLPYRIDINE,C6H7N,0109-06-08,621,4600.155,335,0.3
ALPHA-PINENE,C10H16,80-56-8,630,2887.763,484.5,0.3228
ETHYL ACETATE,C4H8O2,141-78-6,523.2,3830.085,286,0.363
2-BUTANOL,C4H10O,78-92-2,536,4194.855,268,0.576
BENZYL ALCOHOL,C7H8O,100-51-6,715,4300,334,0.3872
ETHYLBENZENE,C8H10,100-41-4,617.1,3607.17,374,0.301
BROMOBENZENE,C6H5Br,108-86-1,670,4519.095,324,0.249
CHLOROBENZENE,C6H5Cl,108-90-7,632.4,4519.095,308,0.249
P-DICHLOROBENZENE,C6H4Cl2,106-46-7,685,3951.675,372,0.27
BENZONITRILE,C7H5N,100-47-0,699.4,4215.12,323,0.36
NITROBENZENE,C6H5NO2,98-95-3,712,3495.713,340,0.394
BENZENE,C6H6,71-43-2,562.1,4893.997,259,0.212
HYDROGEN CYANIDE,CHN,74-90-8,456.8,5390.49,139,0.407
BUTYL BROMIDE,C4H9Br,109-65-9,571.1,4629.539,327,0.3471
BROMINE,Br2,7726-95-6,584,10335.15,127,0.132
2-BUTOXYETHANOL,C6H14O2,111-76-2,633.9,3269.758,423.6,0.5114
1-BUTANOL,C4H10O,71-36-3,562.9,4417.77,274,0.59
2-BUTANONE,C4H8O,78-93-3,535.6,4154.325,267,0.329
N-BUTANE,C4H10,106-97-8,425.2,3799.688,255,0.193
"CIS-1,2-DICHLOROETHYLENE",C2H2Cl2,156-59-2,537,5603.272,200,0.21
2-CHLOROETHANOL,C2H5ClO,0107-07-03,582,5799.843,212,0.6776
BUTYL CHLORIDE,C4H9Cl,109-69-3,542,3688.23,312,0.218
CHLOROFORM,CHCl3,67-66-3,536.4,5471.55,239,0.216
3-METHYLPHENOL,C7H8O,108-39-4,705.8,4559.625,310,0.464
CYCLOHEXANE,C6H12,110-82-7,553.8,4080.358,308,0.213
CYCLOPENTANE,C5H10,287-92-3,511.7,4509.976,259,0.1921
CYCLOHEXENE,C6H10,110-83-8,560.4,4905.6,292,0.2741
METHYLCYCLOHEXANE,C7H14,108-87-2,572.1,3479.501,369,0.2477
METHYLCYCLOPENTANE,C6H12,96-37-7,532.7,3789.555,318,0.239
DIBUTYL ETHER,C8H18O,142-96-1,580,2533.125,500,0.5
FORMIC ACID ISOPENTYL ESTER,C6H12O2,110-45-2,577,3130.942,387.5,0.4024
DECANE,C10H22,124-18-5,617.9,2099.454,603,0.49
"N,N-DIETHYLAMINE",C4H11N,109-89-7,496.6,3708.495,301,0.3031
"N,N-DIMETHYLANILINE",C8H11N,121-69-7,687,3627.435,400,0.4049
"1,2-DIBROMOPROPANE",C3H6Br2,78-75-1,640.8,5095.634,331,0.3024
"1,1-DICHLOROETHANE [R 150A]",C2H4Cl2,75-34-3,523,5066.25,240,0.248
"1,2-DICHLORETHANE",C2H4Cl2,0107-06-02,561,5370.225,220,0.286
"TRANS-1,2-DICHLOROETHENE",C2H2Cl2,156-60-5,517,5520,220,0.2131
DICHLOROMETHANE,CH2Cl2,1975-09-02,510,6355,193,0.2027
"1,2-DICHLOROPROPANE",C3H6Cl2,78-87-5,577,4458.3,293.8,0.241
"N,N-DIMETHYLFORMAMIDE (DMF)",C3H7NO,1968-12-02,650,5499.921,262,0.389
DIMETHOXYMETHANE,C3H8O2,109-87-5,490.9,3957.755,213.2,0.2222
"2,4-DIMETHYLPENTANE",C7H16,0108-08-07,519.8,2739.828,418,0.306
"1,4-DIOXANE",C4H8O2,123-91-1,587,5208.105,238,0.288
"2,6-DIMETHYLPYRIDINE",C7H9N,108-48-5,623.8,3901.013,382.7,0.3559
DODECANE,C12H26,112-40-3,658.8,1809.665,713,0.562
BENZALDEHYDE,C7H6O,100-52-7,695,4660.95,318,0.32
ACETIC ACID BUTYL ESTER,C6H12O2,123-86-4,575.7,3141.075,400,0.4345
METHYL ACETATE,C3H6O2,79-20-9,506.8,4691.347,228,0.32
ACETIC ACID,C2H4O2,64-19-7,594.4,5785.657,171,0.4218
FURFURAL,C5H4O2,1998-01-01,657,5512.08,252,0.4522
DIPROPYLAMINE,C6H15N,142-84-7,555.8,3630,407,0.4335
HYDROGEN BROMIDE,HBr,10035-10-6,363.2,8551.83,100,0.063
1-HEXADECENE,C16H32,629-73-2,717,1337.49,900,0.721
HEXANE,C6H14,110-54-3,507.4,3014.419,370,0.2975
HYDROGEN FLUORIDE,HF,7664-39-3,461,6484.8,69,0.372
HEPTANE,C7H16,142-82-5,540.3,2733.748,432,0.3457
2-HEPTANONE,C7H14O,110-43-0,611.5,2989.088,434,0.425
HYDRAZINE,H4N2,0302-01-02,653,14692.13,96.1,0.328
2-METHYLBUTANE,C5H12,78-78-4,460.4,3380.202,306,0.227
2-PROPANOL,C3H8O,67-63-0,508.3,4762.275,220,0.665
DIISOPROPYL ETHER,C6H14O,108-20-3,500,2877.63,386,0.34
"2,2,4-TRIMETHYLPENTANE",C8H18,540-84-1,543.8,2569.602,468,0.303
ISOPRENE,C5H8,78-79-5,483.3,3739.997,266,0.164
METHYL IODIDE,CH3I,74-88-4,528,6586.125,190,0.1421
1-HEXENE,C6H12,592-41-6,504,3206,350,0.2839
DIISOPROPYLAMINE,C6H15N,108-18-9,525,3029.617,385,0.3333
1-METHYL NAPHTHALENE,C11H10,90-12-0,772,3566.64,445,0.334
2-METHYL NAPHTHALENE,C11H10,91-57-6,764.3,3505.845,455,0.3464
METHANOL,CH4O,67-56-1,512.6,8095.868,118,0.559
2-METHYLPENTANE,C6H14,107-83-5,497.7,3039.75,368,0.279
3-METHYLPENTANE,C6H14,96-14-0,504.6,3119.797,368,0.275
2-METHOXYETHANOL,C3H8O2,109-86-4,597.6,5285,263,0.4411
MORPHOLINE,C4H9NO,110-91-8,618,5471.55,253,0.37
DIACETONE ALCOHOL,C6H12O2,123-42-2,606,3600.077,374,0.7565
BUTYLBENZENE,C10H14,104-51-8,660.5,2887.763,497,0.392
4-METHYL-2-PENTANONE,C6H12O,0108-10-01,571,3272.797,371,0.4
3-METHYLPYRIDINE,C6H7N,108-99-6,645,4650.818,288,0.296
4-METHYLPYRIDINE,C6H7N,108-89-4,646,4458.3,325,0.27
2-METHYL-1-PROPANOL,C4H10O,78-83-1,547.7,4296.18,273,0.588
ALPHA-METHYL STYRENE,C9H10,98-83-9,654,3555,413.6,0.342
NAPHTHALENE,C10H8,91-20-3,748.4,4053,410,0.302
NITROMETHANE,CH3NO2,75-52-5,588,6312.547,173,0.346
1-NITROPROPANE,C3H7NO2,0108-03-02,606,3999.997,283,0.3533
1-NONANOL,C9H20O,0143-08-08,671,2546,544,0.6177
OCTANE,C8H18,111-65-9,568.8,2494.622,492,0.394
1-OCTENE,C8H16,111-66-0,566.6,2624.317,464,0.386
2-METHYLPHENOL,C7H8O,95-48-7,697.6,5005.455,282,0.443
1-OCTADECENE,C18H36,112-88-9,739,1134.84,1012,0.837
4-METHYLPHENOL,C7H8O,106-44-5,704.6,5147.31,332,0.515
PENTANE,C5H12,109-66-0,469.7,3369.056,304,0.251
1-PENTANOL,C5H12O,71-41-0,586,3850.35,326,0.58
2-PENTANONE,C5H10O,107-87-9,561.19,3672,301,0.3396
PHENOL,C6H6O,108-95-2,694.2,6130.163,229,0.44
PHOSGENE,CCl2O,75-44-5,455,5674.2,190,0.204
1-PROPANOL,C3H8O,71-23-8,536.7,5167.575,218.5,0.624
PROPIONIC ACID,C3H6O2,1979-09-04,604,4333,221.8,0.5184
1-PROPANETHIOL,C3H8S,0107-03-09,536.6,4529.228,286.3,0.225
"1,2-PROPYLENE OXIDE",C3H6O,75-56-9,482.2,4924.395,186,0.269
PYRIDINE,C5H5N,110-86-1,620,5633.67,254,0.24
NITRIC ACID,HNO3,7697-37-2,520,6890.1,133,0.7144
HYDROGEN CHLORIDE,HCl,7647-01-0,324.6,8308.65,81,0.12
SALICYLIC ACID METHYL ESTER,C8H8O3,119-36-8,709,4090,412,0.5789
CARBON DISULFIDE,CS2,75-15-0,552,7903.35,202,0.115
STYRENE,C8H8,100-42-5,635.2,3870,347.2,0.3007
TETRAETHYLSILANE,C8H20Si,631-36-7,603.7,2602.026,492,0.473
TERT-BUTANOL,C4H10O,75-65-0,506.2,3971.94,275,0.618
TETRADECANE,C14H30,629-59-4,691.8,1572.564,893.7,0.679
TRANS-DECAHYDRONAPHTHALENE,C10H18,0493-02-07,690,3141.075,485,0.2756
"1,2,3,4-TETRAHYDRONAPHTHALENE",C10H12,119-64-2,719.2,3515.978,408.1,0.3207
TETRACHLOROMETHANE,CCl4,56-23-5,556.4,4559.625,276,0.194
TETRAHYDROFURAN,C4H8O,109-99-9,540.2,5187.84,224,0.217
TOLUENE,C7H8,108-88-3,591.7,4113.795,316,0.257
TRIETHYLAMINE,C6H15N,121-44-8,535,3039.75,390,0.329
"1,1,2-TRICHLOROETHANE",C2H3Cl3,79-00-5,602,4154.325,294,0.2454
TETRACHLOROETHYLENE,C2Cl4,127-18-4,620,4458.3,290,0.242
"1,1,1-TRICHLOROETHANE [R140A]",C2H3Cl3,71-55-6,545,4301.246,268,0.216
TRICHLOROETHYLENE,C2HCl3,1979-01-06,571,4914.263,256,0.213
"1',1',1'-TRIFLUOROTOLUENE",C7H5F3,1998-08-08,565,3390.334,356,0.2816
"2,2,5-TRIMETHYLHEXANE",C9H20,3522-94-9,569.8,2330.475,543.5,0.357
"2,2,3-TRIMETHYLBUTANE",C7H16,0464-06-02,531.1,2949.571,398,0.251
TRICHLOROSILANE,HCl3Si,10025-78-2,479,4054.013,268,0.1935
VINYL ACETATE,C4H6O2,0108-05-04,519.13,4185,265,0.3767
WATER,H2O,7732-18-5,647.3,22048.321,56,0.344
M-XYLENE,C8H10,108-38-3,617,3546.375,376,0.331
P-XYLENE,C8H10,106-42-3,616.2,3515.978,379,0.324
NITROETHANE,C2H5NO2,79-24-3,595,4850.002,228,0.3156
METHYLAMINE,CH5N,74-89-5,430,7457.52,140,0.275
DIMETHYLAMINE,C2H7N,124-40-3,437.6,5309.43,187,0.288
2-PROPANETHIOL,C3H8S,75-33-2,512,4346.843,252,0.213
CYCLOPENTANOL,C5H10O,96-41-3,619.5,4900,280,0.4023
FLUOROBENZENE,C6H5F,0462-06-06,560.1,4549.493,271,0.245
TETRACHLOROSILANE,Cl4Si,10026-04-7,507,3749.025,326,0.264
METHYLTRICHLOROSILANE,CH3Cl3Si,75-79-6,517.75,3526,339.7,0.2468
TRIMETHYLCHLOROSILANE,C3H9ClSi,75-77-4,497.8,3201.87,366,0.2674
METHYL BUTYL ETHER,C5H12O,628-28-4,512.78,3371,329,0.311
"1,1,2,2-TETRACHLOROETHANE",C2H2Cl4,79-34-5,650,5127.045,314,0.318
TRICHLOROACETIC ACID ETHYL ESTER,C4H5Cl3O2,515-84-4,640,3349.805,403,0.419
PROPANOIC ACID ETHYL ESTER,C5H10O2,105-37-3,546.5,3363.99,345,0.395
ACETIC ACID 3-METHYLBUTYL ESTER,C7H14O2,123-92-2,586.1,2760,443,0.4722
PROPANOIC ACID BUTYL ESTER,C7H14O2,0590-01-02,594.5,2614.185,449,0.4204
AMMONIA,H3N,7664-41-7,405.6,11277.47,72.5,0.25
VINYL CHLORIDE,C2H3Cl,1975-01-04,429.7,5603.272,186,0.122
"1,2-DIMETHOXYETHANE",C4H10O2,110-71-4,542.7,3960,271,0.3074
PERFLUOROCYCLOPENTANE,C5F10,376-77-2,423.6,2669.914,422,0.409
PERFLUOROPENTANE,C5F12,678-26-2,420.59,2045,470,0.437
TERT.BUTYL CHLORIDE,C4H9Cl,507-20-0,507,3951.675,295,0.19
"1,1,2-TRICHLORO-1,2,2-TRIFLUOROETHANE [R113]",C2Cl3F3,76-13-1,487.25,3411.613,325.1,0.255
HEXAMETHYLENE IMINE,C6H13N,111-49-9,624,4269.835,310,0.3205
FORMALDEHYDE,CH2O,50-00-0,408,6586.125,101,0.2484
N-METHYLFORMAMIDE,C2H5NO,123-39-7,725,7500.076,180,0.492
"N,N-DIMETHYLACETAMIDE",C4H9NO,127-19-5,643,4499.843,285,0.377
ACRYLONITRILE,C3H3N,107-13-1,536,4559.625,210,0.35
ACROLEIN,C3H4O,0107-02-08,506,5167.575,190,0.33
GLYCEROL,C3H8O3,56-81-5,850,7500,255,0.5152
METHACRYLIC ACID,C4H6O2,79-41-4,643,4700.467,270,0.4678
ACETIC ANHYDRIDE,C4H6O3,108-24-7,606,4000,290,0.4419
BUTYRIC ACID,C4H8O2,107-92-6,624,3951.675,292,0.5913
PROPANE,C3H8,74-98-6,369.95,4245.518,203,0.152
ACETIC ACID PROPYL ESTER,C5H10O2,109-60-4,549.4,3333.593,345,0.392
PALMITIC ACID,C16H32O2,1957-10-03,804,1641.465,947,0.9297
BUTYLAMINE,C4H11N,109-73-9,524,4154.325,288,0.396
CYCLOPENTANONE,C5H8O,120-92-3,626,4600,268,0.273
PIPERIDINE,C5H11N,110-89-4,594,4762.275,289,0.2561
CHLORODIFLUOROMETHANE [R22],CHClF2,75-45-6,369.35,4975.057,165,0.215
DICHLORODIFLUOROMETHANE [R12],CCl2F2,75-71-8,385.15,4123.928,217,0.176
PERFLUOROCYCLOBUTANE [R318],C4F8,115-25-3,388.37,2776.305,324.8,0.3505
TETRADECANOIC ACID METHYL ESTER,C15H30O2,0124-10-07,740,1428.683,891,0.7365
PHENYLHYDRAZINE,C6H8N2,100-63-0,750,5197.972,322,0.5565
CYCLOHEXANONE,C6H10O,108-94-1,665.5,3850.35,312,0.1837
CYCLOHEXANOL,C6H12O,108-93-0,650,4260,327,0.3695
HEXADECANOIC ACID METHYL ESTER,C17H34O2,112-39-0,765,1276.695,1002,0.8037
"2,4-DIMETHYLPYRIDINE",C7H9N,108-47-4,647,3951.675,372,0.3488
1-PENTENE,C5H10,109-67-1,464.7,3526.11,300,0.245
TRIBROMOMETHANE [R20B3],CHBr3,75-25-2,685,5643.803,288,0.1958
METHACRYLIC ACID METHYL ESTER,C5H8O2,80-62-6,536,4255.65,320,0.5383
2-METHYL-2-BUTENE,C5H10,513-35-9,470,3445.05,296,0.285
2-METHYL-1-BUTENE,C5H10,563-46-2,465,3445.05,294,0.232
OCTADECANOIC ACID,C18H36O2,1957-11-04,822,1429.696,1057,0.9802
3-METHYL-1-BUTANOL,C5H12O,123-51-3,579.5,3850.35,329,0.58
VINYL BROMIDE,C2H3Br,593-60-2,474,4600.155,197,0.091
HEXANOIC ACID,C6H12O2,142-62-1,663,3201.87,416,0.6701
OCTANOIC ACID,C8H16O2,0124-07-02,694,2695.245,509,0.7792
CHLOROACETYL CHLORIDE,C2H2Cl2O,1979-04-09,581,5109.82,245,0.3582
2-ETHOXYETHANOL,C4H10O2,110-80-5,569.65,4199.921,295,0.6745
2-METHYLPROPYLAMINE,C4H11N,78-81-9,516,4255.65,284,0.3
1-CHLOROOCTANE,C8H17Cl,111-85-3,646.3,2521.979,526,0.4392
"2,3-DIMETHYLPHENOL",C8H10O,526-75-0,722.8,4863.6,387,0.5407
"2,4-DIMETHYLPHENOL",C8H10O,105-67-9,707.6,4356.975,387,0.5136
"2,6-DIMETHYLPHENOL",C8H10O,576-26-1,701,4255.65,387,0.4395
"3,5-DIMETHYLPHENOL",C8H10O,108-68-9,715.6,3647.7,387,0.4976
METHACRYLONITRILE,C4H5N,126-98-7,554,3880.747,265,0.2903
"1,2-PROPANEDIOL",C3H8O2,57-55-6,676.4,5941,237,0.5928
THIOPHENE,C4H4S,0110-02-01,579.4,5694.465,219,0.2
N-METHYL-2-PYRROLIDONE,C5H9NO,872-50-4,721.7,4519.095,310.8,0.3577
3-PENTANONE,C5H10O,96-22-0,561,3738.893,336,0.347
3-HEXANONE,C6H12O,589-38-8,582.82,3323.46,374,0.377
4-HEPTANONE,C7H14O,123-19-3,604,3019.485,431,0.441
FORMIC ACID BUTYL ESTER,C5H10O2,592-84-7,563,3556.507,345,0.3844
2-METHYLFURAN,C5H6O,534-22-5,527.59,4723,246,0.2658
METHYL FORMATE,C2H4O2,107-31-3,487.2,5998.44,172,0.252
N-METHYLACETAMIDE,C3H7NO,79-16-3,718,4979.921,240,0.4651
2-METHYLTETRAHYDROFURAN,C5H10O,96-47-9,537.03,3758,267,0.264
CHLOROACETIC ACID,C2H3ClO2,1979-11-08,680,5649.882,220,0.575
1-HEXANOL,C6H14O,111-27-3,610,3419.719,381,0.56
HEXAFLUOROBENZENE,C6F6,392-56-3,516.7,3303.195,335.1,0.4
ACRYLIC ACID,C3H4O2,1979-10-07,615,5674.2,210,0.56
PERFLUOROHEPTANE,C7F16,335-57-9,477.75,1750,664,0.5559
"2,3-DIMETHYLPENTANE",C7H16,565-59-3,537.3,2910.054,393,0.299
2-METHYLPROPIONIC ACID,C4H8O2,79-31-2,605,3698.363,292,0.61
"2-METHYL-2,4-PENTANEDIOL",C6H14O2,107-41-5,621,4009.43,398,1.0381
BENZOIC ACID METHYL ESTER,C8H8O2,93-58-3,692,3647.7,396,0.4133
"1,3-BENZENEDICARBOXYLIC ACID DIMETHYL ESTER",C10H10O4,1459-93-4,766,2650,563.1,0.6386
BUTYRALDEHYDE,C4H8O,123-72-8,537.2,4316.445,257.6,0.352
"1,3-CYCLOPENTADIENE",C5H6,542-92-7,500,4699.96,232,0.1898
CIS-DECAHYDRONAPHTHALENE,C10H18,0493-01-06,702.3,3201.87,485,0.2849
2-METHYLPROPANE,C4H10,75-28-5,408.8,3639.594,259,0.176
2-PROPENOIC ACID BUTYL ESTER,C7H12O2,141-32-2,644,4540,423,0.3184
2-PROPENOIC ACID ETHYL ESTER,C5H8O2,140-88-5,552,3749.025,320,0.4
"2-BROMO-2-CHLORO-1,1,1-TRIFLUOROETHANE",C2HBrClF3,151-67-7,495,3951.675,296,0.2763
ETHYLAMINE,C2H7N,1975-04-07,456,5623.538,178,0.284
CHLOROETHANE,C2H5Cl,75-00-3,460.4,5268.9,199,0.1895
O-XYLENE,C8H10,95-47-6,630.2,3732,369,0.3118
2-BUTOXYETHYL ACETATE,C8H16O3,0112-07-02,640.2,2695.245,548.7,0.6015
PENTANOIC ACID,C5H10O2,109-52-4,639.9,3629.461,340,0.616
N-METHYLANILINE,C7H9N,100-61-8,702,4802.805,349,0.436
PROPIONITRILE,C3H5N,107-12-0,564.4,4184.722,230,0.318
"2-CHLORO-1,3-BUTADIENE",C4H5Cl,126-99-8,525,4259.703,270,0.1928
1-NONENE,C9H18,0124-11-08,592,2340.608,525,0.43
2-CHLOROPROPANE,C3H7Cl,75-29-6,485,4721.745,230,0.2576
3-CHLORO-1-PROPENE,C3H5Cl,0107-05-01,514.15,4762.265,234,0.13
FURAN,C4H4O,110-00-9,487.03,5323,218,0.2167
1-CHLOROPROPANE,C3H7Cl,540-54-5,503.1,4579.89,254,0.23
ALPHA.-PHENYLETHANOL,C8H10O,98-85-1,667.47,3991.597,385,0.6905
DIBUTYLAMINE,C8H19N,111-92-2,607.5,3110,517,0.5782
ETHYL PROPYL ETHER,C5H12O,628-32-0,500.6,3252.532,339,0.312
DI-N-PROPYL ETHER,C6H14O,111-43-3,530.6,3029.617,391,0.3585
ETHYL BUTYL ETHER,C6H14O,628-81-9,531,3039.75,390,0.3771
1-HEPTANOL,C7H16O,111-70-6,633,3039.75,435,0.56
1-OCTANOL,C8H18O,111-87-5,652.5,2860.405,490,0.5963
1-DECANOL,C10H22O,112-30-1,684.4,2314.263,600,0.6919
DODECANOIC ACID,C12H24O2,0143-07-07,761,2239.283,726,0.8253
TETRADECANOIC ACID,C14H28O2,544-63-8,784,1915.042,836,0.874
DODECANOIC ACID METHYL ESTER,C13H26O2,111-82-0,712,1631.333,781,0.6737
OCTADECANOIC ACID METHYL ESTER,C19H38O2,112-61-8,788,1165.238,1112,0.8645
"2,3-EPOXY-1-PROPANOL",C3H6O2,556-52-5,660.24,5978.55,212,0.4269
ISOPROPYLBENZENE,C9H12,98-82-8,631,3212.003,428,0.3261
BETA-NAPHTHOL,C10H8O,135-19-3,825,4498.83,457,0.507
1-DECENE,C10H20,0872-05-09,615,2208.885,584,0.491
3-METHYL-1-BUTENE,C5H10,563-45-1,450,3515.978,305,0.2274
"TRANS-1,3-PENTADIENE",C5H8,2004-70-8,496,3992.205,275,0.175
2-METHYL-2-PENTENE,C6H12,625-27-4,518,3282.93,351,0.229
"2,3-EPOXY-2-METHYLPENTANE",C6H12O,1192-22-9,580,3242.4,356,0.1453
2-METHYL-3-PENTANONE,C6H12O,565-69-5,577,3199.843,372,0.3254
2-METHYL-3-PENTANOL,C6H14O,565-67-3,576,3460,369,0.5451
"1,3-BUTADIENE",C4H6,106-99-0,425,4326.578,221,0.195
1-BUTEN-3-YNE,C4H4,689-97-4,455,4964.925,202,0.092
"2,3-DIMETHYLBUTANE",C6H14,79-29-8,500,3149.181,361,0.247
1-BUTENE,C4H8,106-98-9,419.6,4022.603,240,0.187
PROPYLBENZENE,C9H12,103-65-1,638.3,3201.87,440,0.344
"2,2-DIMETHYLBUTANE",C6H14,75-83-2,489,3099.532,358,0.231
ETHYL BUTYRATE,C6H12O2,105-54-4,568.8,3141.075,395,0.4379
ACETOPHENONE,C8H8O,98-86-2,709.5,4010.444,386.3,0.377
ACETIC ACID ISOBUTYL ESTER,C6H12O2,110-19-0,561,3010,414,0.4302
MALEIC ANHYDRIDE,C4H2O3,108-31-6,726,6484.8,235,0.3897
ISOCYANIC ACID METHYL ESTER,C2H3NO,624-83-9,491,5572.875,167,0.2744
ISOPROPYLAMINE,C3H9N,75-31-0,471.76,4551,220.6,0.2786
N-PROPYLAMINE,C3H9N,0107-10-08,497,4742.01,233,0.2879
2-ETHYL-1-HEXANOL,C8H18O,104-76-7,640.8,2796.57,494,0.5518
ACETIC ACID ISOPROPYL ESTER,C5H10O2,108-21-4,535,3374.122,343,0.36
CYCLOHEPTANE,C7H14,291-64-5,604.2,3819.953,353,0.2384
CYCLOOCTANE,C8H16,292-64-8,647.2,3559.547,410,0.2536
"1,2,4,5-TETRAMETHYLBENZENE",C10H14,95-93-2,676,2900,480,0.4168
TRIDECANE,C13H28,629-50-5,676,1678.955,823.1,0.623
4-ISOPROPYLTOLUENE,C10H14,99-87-6,653,2826.967,474,0.3685
"1,2,3-TRICHLOROPROPANE",C3H5Cl3,96-18-4,648.15,3951.665,348,0.3283
DICHLORODIMETHYLSILANE,C2H6Cl2Si,75-78-5,520.4,3485.58,358,0.272
P-DIISOPROPYLBENZENE,C12H18,100-18-5,674.74,2357.833,584.2,0.4818
4-ISOPROPYLPHENOL,C9H12O,99-89-8,710,3597.038,434,0.5841
NONANE,C9H20,111-84-2,594.7,2279.813,555.2,0.444
PROPANAL,C3H6O,123-38-6,509.1,5268.9,206.3,0.2449
METHYL PROPANOATE,C4H8O2,0554-12-01,530.8,4002.338,282,0.352
ETHYLCYCLOHEXANE,C8H16,1678-91-7,609,3029.617,420,0.2444
DIETHYLENE GLYCOL MONOBUTYL ETHER,C8H18O3,112-34-5,692.3,2789.477,536,0.6471
OCTANOIC ACID METHYL ESTER,C9H18O2,0111-11-05,644,2249.415,561,0.5378
DECANOIC ACID METHYL ESTER,C11H22O2,110-42-9,681,1889.711,671,0.603
1-NAPHTHOL,C10H8O,90-15-3,825,4853.468,420,0.4735
METHYL BUTYL AMINE,C5H13N,110-68-9,539,3323.46,346,0.347
ACETIC ACID PENTYL ESTER,C7H14O2,628-63-7,597.8,2664.847,468.7,0.4515
FORMIC ACID PROPYL ESTER,C4H8O2,110-74-7,538,4063.132,285,0.315
ETHYL METHYL SULFIDE,C3H8S,624-89-5,533,4255.65,259,0.208
DIETHYL SULFIDE,C4H10S,352-93-2,557.8,3900,317.6,0.2762
ETHYL BUTYL AMINE,C6H15N,13360-63-9,554,2826.967,401,0.363
1-BUTANOIC ACID BUTYL ESTER,C8H16O2,109-21-7,612.1,2310.21,506,0.4852
"1,4-DICYANOBUTANE",C6H8N2,111-69-3,781,2830.007,406,0.5576
BENZOIC ACID,C7H6O2,65-85-0,752,4559.625,341,0.6383
HEXAMETHYL DISILOXANE,C6H18OSi2,107-46-0,516.6,1909.976,620,0.4145
METHYL ISOPROPYL KETONE,C5H10O,563-80-4,552.8,3850.35,310,0.3244
PROPANOIC ACID PROPYL ESTER,C6H12O2,106-36-5,571,3141.075,395,0.4361
QUINOLINE,C9H7N,91-22-5,782,3799.688,402.4,0.2389
EPICHLOROHYDRIN,C3H5ClO,106-89-8,610,4900.077,233,0.2562
TRIETHYLENE GLYCOL,C6H14O4,112-27-6,797,3300.155,441,0.5842
CHLOROTRIFLUOROMETHANE [R 13],CClF3,75-72-9,302,3921.278,180,0.18
DIETHYLENE GLYCOL MONOMETHYL ETHER,C5H12O3,111-77-3,672,3670,371,0.5141
N-ETHYL-SEC.BUTYLAMINE,C6H15N,21035-44-9,543,2897.895,393,0.3507
TRANS-2-BUTENE,C4H8,624-64-6,428.6,4103.663,238,0.214
CARBONIC ACID DIMETHYL ESTER,C3H6O3,616-38-6,557,4800,252.2,0.3321
5-NONANONE,C9H18O,502-56-7,640,2320.342,560,0.514
DIETHYLENE GLYCOL ETHYL ETHER,C6H14O3,111-90-0,670,3167,426,0.4795
ISOBUTYLENE,C4H8,0115-11-07,417.9,4002.338,239,0.19
2-METHYLPROPANAL,C4H8O,78-84-2,513,4154.325,274,0.325
CIS-2-BUTENE,C4H8,590-18-1,435.6,4204.988,234,0.202
TERT-BUTYLAMINE,C4H11N,75-64-9,483.9,3840.218,292.6,0.274
DIETHYLENE GLYCOL,C4H10O3,111-46-6,753,4770.381,316,0.5799
3-METHYLHEXANE,C7H16,589-34-4,535.2,2809.742,404,0.324
2-PROPENOIC ACID METHYL ESTER,C4H6O2,96-33-3,536,4249.57,270,0.3475
PERFLUOROHEXANE,C6F14,355-42-0,451.7,1904.91,560,0.4943
"2,2-DIMETHYLPROPANE",C5H12,463-82-1,433.8,3195.791,307,0.197
TETRAMETHYLSILANE,C4H12Si,75-76-3,448.64,2820.888,361,0.242
4-METHYL-2-PENTANOL,C6H14O,0108-11-02,574.4,3649.727,380,0.5723
BIPHENYL,C12H10,92-52-4,773,3380,502,0.403
DIPHENYLMETHANE,C13H12,101-81-5,767,2978.955,562.7,0.4619
SEC-BUTYLBENZENE,C10H14,135-98-8,664,2948.558,474,0.2971
2-METHYL-1-PENTENE,C6H12,763-29-1,505,3293.063,351,0.274
4-METHYL-1-PENTENE,C6H12,691-37-2,493,3100.545,238,0.248
5-VINYLBICYCLO[2.2.1]HEPT-2-ENE,C9H12,3048-64-4,620,3300,408.7,0.2931
DICYCLOPENTADIENE,C10H12,77-73-6,665,3755.105,450,0.3484
EICOSANE,C20H42,112-95-8,767,1070,1156,0.8805
"1,3,5-TRIMETHYLBENZENE",C9H12,108-67-8,637.3,3130.942,433,0.3796
O-NITROTOLUENE,C7H7NO2,88-72-2,720,3404.52,400,0.439
M-NITROTOLUENE,C7H7NO2,1999-08-01,725,3049.883,400,0.4381
P-NITROTOLUENE,C7H7NO2,99-99-0,735,2999.22,400,0.4287