NAME,formula,CAS-nr.,Tc / K,Pc / kPa,vc / cm3 mol-1,??i
"1,2,3,5-TETRAMETHYL BENZENE",C10H14,527-53-7,679,2841.153,436.2,0.4051
2-ETHYL M-XYLENE,C10H14,2870-04-04,665.1,2929.306,446.2,0.4359
2-ETHYL P-XYLENE,C10H14,1758-88-9,662.6,2899.922,460.8,0.4175
4-ETHYL O-XYLENE,C10H14,934-80-5,662.6,2899.922,452.1,0.4472
4-ETHYL M-XYLENE,C10H14,874-41-9,662.6,2899.922,482,0.4331
5-ETHYL M-XYLENE,C10H14,934-74-7,649.1,2800.623,458,0.4692
"1,3-DIETHYLBENZENE",C10H14,141-93-5,657.1,2919.173,467.7,0.3927
"1,4-DIETHYLBENZENE",C10H14,0105-05-05,657.88,2802.649,478.2,0.409
O-ISOPROPYL-TOLUENE,C10H14,527-84-4,657.3,2904.988,490.2,0.369
M-ISOPROPYL-TOLUENE,C10H14,535-77-3,651.4,2846.219,490.2,0.3628
O-PROPYLTOLUENE,C10H14,1074-17-5,662.1,2887.763,489.8,0.399
2-PROPYL P-XYLENE,C11H16,3042-50-0,679.7,2654.715,551.1,0.4295
"2,5-DIMETHYL CUMENE",C11H16,4132-72-3,668.8,2629.384,551.1,0.4297
"1,2-DIMETHYL NAPHTHALENE",C12H12,573-98-8,790.24,3361.964,469.2,0.3951
"1,5-DIMETHYL NAPHTHALENE",C12H12,571-61-9,781.3,3219.095,473.4,0.4261
"1,6-DIMETHYL NAPHTHALENE",C12H12,575-43-9,778.2,3222.135,472.6,0.412
"1,7-DIMETHYL NAPHTHALENE",C12H12,575-37-1,778.2,3222.135,472.6,0.4327
"2,3-DIMETHYL NAPHTHALENE",C12H12,581-40-8,785.2,3217.069,513.9,0.4137
"2,6-DIMETHYL NAPHTHALENE",C12H12,581-42-0,777.2,3222.135,507.7,0.3818
"2,7-DIMETHYL NAPHTHALENE",C12H12,582-16-1,778.2,3222.135,507.7,0.4069
2-ETHYL NAPHTHALENE,C12H12,939-27-5,771.8,3171.472,516,0.4114
3-METHYL CYCLOPENTENE,C6H10,1120-62-3,523.2,3828.058,306.8,0.227
"TRANS-1,3-DIMETHYL CYCLOHEXANE",C8H16,2207-03-06,598,2938.425,460,0.2118
"CIS-1,3-DIMETHYL CYCLOHEXANE",C8H16,638-04-0,591,2938.425,460,0.2828
"CIS-1,4-DIMETHYL CYCLOHEXANE",C8H16,624-29-3,598,2938.425,460,0.2338
N-PROPYL CYCLOHEXANE,C9H18,1678-92-8,639,2546.297,481.3,0.2585
2-METHYL TETRALIN,C11H14,3877-19-8,715.2,2968.822,500,0.39
6-METHYL TETRALIN,C11H14,1680-51-9,733.2,3116.757,483.1,0.3769
"2,3-DIMETHYLPYRIDINE",C7H9N,583-61-9,655.4,4109.742,359,0.3408
"2,5-DIMETHYLPYRIDINE",C7H9N,589-93-5,644.2,3874.668,359,0.3501
3-ETHYLPYRIDINE,C7H9N,536-78-7,661,4000.108,368,0.3367
4-ETHYLPYRIDINE,C7H9N,536-75-4,663,4099.609,368,0.3392
M-TOLUONITRILE,C8H7N,620-22-4,710,3749.025,400,0.4244
P-TOLUONITRILE,C8H7N,104-85-8,723,3546.375,400,0.3939
4-ETHYL ANILINE,C8H11N,589-16-2,715,3850.35,402,0.479
"9,10-DIHYDROPHENANTHRENE",C14H12,776-35-2,774,1314.185,660,0.5475
3-METHYL-ISOQUINOLINE,C10H9N,1125-80-0,808,5099.687,500,0.351
"2,4-DIMETHYL QUINOLINE",C11H11N,1198-37-4,807,3899.999,552,0.3909
"2,3-DIHYDRO-4H-PYRAN",C5H8O,110-87-2,561.7,4559.625,268,0.2392
4-ETHYLPHENOL,C8H10O,0123-07-09,716.4,4053,400,0.4892
2-ETHYLPHENOL,C8H10O,90-00-6,703,4296.18,381,0.4793
P-PHENYLPHENOL,C12H10O,92-69-3,825,3495.713,500,0.5695
THIACYCLOBUTANE,C3H6S,287-27-4,603.15,6099.765,204,0.182
2-METHYL THIOPHENE,C5H6S,554-14-3,606.2,4673.109,279.4,0.2381
3-METHYL THIOPHENE,C5H6S,616-44-4,610.8,4787.606,274.8,0.243
TETRAHYDROTHIOPYRAN,C5H10S,1613-51-0,654,4549.493,293,0.219
2-METHYL-THIACYCLOPENTANE,C5H10S,1795-09-01,631.2,4300.233,306,0.245
3-METHYL-THIACYCLOPENTANE,C5H10S,4740-00-5,641.2,4375.214,306,0.246
CYCLOPENTANE-THIOL,C5H10S,1679-07-08,629,4274.902,320,0.253
BENZENETHIOL,C6H6S,108-98-5,685,4600.155,317,0.284
"2,3-DIMETHYL THIOPHENE",C6H8S,632-16-6,635.2,3879.734,332,0.2679
"2,4-DIMETHYL THIOPHENE",C6H8S,638-00-6,631.2,4014.496,332,0.2955
"2,5-DIMETHYL THIOPHENE",C6H8S,0638-02-08,625.2,3890.373,332,0.2811
"3,4-DIMETHYL THIOPHENE",C6H8S,632-15-5,640.2,3907.7,332,0.2674
3-METHYL-THIACYCLOHEXANE,C6H12S,5258-50-4,664,3874.668,350,0.249
2-METHYL-THIACYCLOHEXANE,C6H12S,5161-16-0,656,3825.019,350,0.245
4-METHYL THIACYCLOHEXANE,C6H12S,5161-17-1,665,3849.944,350,0.245
CYCLOHEXANETHIOL,C6H12S,1569-69-3,664.2,3849.337,401,0.252
"1,2-DIISOPROPYLBENZENE",C12H18,577-55-9,668.95,2445.985,582.9,0.4743
"1,3-DIISOPROPYLBENZENE",C12H18,99-62-7,664.35,2348.714,582.9,0.4858
2-N-PROPYLNAPHTHALENE,C13H14,2027-19-2,780.05,2849.259,563.5,0.4943
2-N-BUTYLNAPHTHALENE,C14H16,1134-62-9,793.35,2541.231,610,0.4656
PYRENE,C16H10,129-00-0,938.2,2604.053,626,0.4862
O-TERPHENYL,C18H14,84-15-1,857,2990,731.1,0.5459
"1,1-DIMETHYLCYCLOHEXANE",C8H16,590-66-9,591,2938.425,450,0.238
"TRANS-1,2-DIMETHYLCYCLOHEXANE",C8H16,6876-23-9,596,2938.425,460,0.2296
THIANTHRENE,C12H8S2,92-85-3,920,3420,584.1,0.4602
"4,7-DIMETHYL INDAN",C11H14,6682-71-9,722.3,4742,514,0.502
PYRAZINE,C4H4N2,290-37-9,622,5799.843,250,0.2392
2-METHYL PYRAZINE,C5H6N2,109-08-0,634.4,5005.455,318.7,0.2749
"2,5-DIMETHYL PYRROLE",C6H9N,625-84-3,661,5099.687,323,0.446
O-TOLUNITRILE,C8H7N,529-19-1,709,3951.675,400,0.4092
INDOLE,C8H7N,120-72-9,790.7,4275.915,369,0.3464
"2,6-DIMETHYLANILINE",C8H11N,87-62-7,722,4199.921,402,0.4273
8-METHYLQUINOLINE,C10H9N,611-32-5,791,5000.389,470,0.3855
ACRIDINE,C13H9N,260-94-6,905.15,3600.077,543.1,0.4133
"1,4-DIHYDROXYBENZENE",C6H6O2,123-31-9,820,6749.967,292,0.6598
3-ETHYLPHENOL,C8H10O,620-17-7,718.8,4154.325,389,0.5105
"1,2,3-TRIHYDROXYBENZENE",C6H6O3,87-66-1,840,6251.753,307,0.6095
2-PROPYLPHENOL,C9H12O,644-35-9,705,3850.35,442,0.5982
DIBENZOFURAN,C12H8O,132-64-9,809.59,3201.87,493.4,0.4336
3-ETHYLTHIOPHENE,C6H8S,1795-01-03,629,4154.325,332,0.2815
1-CYCLOPENTYL-1-THIAETHANE,C6H12S,7133-36-0,652,3749.025,375,0.2885
1-PHENYL-1-THIAETHANE,C7H8S,100-68-5,706,4070.225,372,0.3351
3-METHYL-5-ETHYL-PHENOL,C9H12O,698-71-5,725,3566.64,442,0.5613
"2,3,5-TRIMETHYLPHENOL",C9H12O,697-82-5,730,3850.35,442,0.5475
"1,2-DIHYDROXYNAPHTHALENE",C10H8O2,574-00-5,718.59,3505.845,450,0.3
"1,3,5-TRIETHYLBENZENE",C12H18,102-25-0,679,2435,616.6,0.5238
DIBENZOTHIOPHENE,C12H8S,132-65-0,897,3860,515.9,0.3863
ACENAPHTHYLENE,C12H8,208-96-8,796.87,3221.922,475.6,0.3609
"2,3,3-TRIMETHYL-1-BUTENE",C7H14,594-56-9,533,2897.895,400,0.192
"1,1,1,2,2-PENTAFLUOROPROPANE",C3H3F5,1814-88-6,380.12,3137.002,273.2,0.3016
CYCLOPROPANE,C3H6,75-19-4,398,5540.451,162,0.1261
N-HEXANOIC ACID NITRILE,C6H11N,628-73-9,622.05,2920.186,384,0.4743
CARBONIC ACID DIETHYL ESTER,C5H10O3,105-58-8,576.33,3367.4,360,0.4561
ETHYLENE CARBONATE,C3H4O3,96-49-1,794.82,6141.84,195,0.406
DIMETHYLSUCCINATE,C6H10O4,106-65-0,665.73,3092.783,420,0.5386
DI-N-OCTYL THIOETHER,C16H34S,2690-08-06,780,1800,1112,0.8067
CYCLOBUTANE,C4H8,287-23-0,458,5045.985,218,0.2061
DIGLYCOLAMINE,C4H11NO2,0929-06-06,727,6220,325,0.6432
1-PHENYLDECANE,C16H26,104-72-3,753,1779.997,850,0.6646
1-PHENYLDODECANE,C18H30,0123-01-03,779.1,1570.538,980,0.7278
1-PHENYLTETRADECANE,C20H34,1459-10-05,792,1419.999,1110,0.8171
1-PHENYLPENTADECANE,C21H36,2131-18-2,800,1350.004,1140,0.4254
DIBENZYLAMINE,C14H15N,103-49-1,835,4053,624,0.485
2-HEPTANOL,C7H16O,543-49-7,608.3,3021.005,441.8,0.5784
"2,2,3,3-TETRAMETHYLBUTANE",C8H18,594-82-1,567.8,2867.497,461,0.2469
1-CHLOROHEXANE,C6H13Cl,0544-10-05,594.4,3052.922,416,0.3738
PERFLUORONONANE,C9F20,375-96-2,523.95,1560,800,0.5193
3-ETHYLPENTANE,C7H16,617-78-7,540.6,2889.789,416,0.31
N-BUTYLCYCLOHEXANE,C10H20,1678-93-9,667,3151.208,530,0.3524
2-ETHYLTHIOPHENE,C6H8S,872-55-9,626,4002.338,332,0.2653
N-BUTYLMERCAPTAN,C4H10S,109-79-5,570.1,4002.338,324.4,0.2734
ISO-BUTYLMERCAPTAN,C4H10S,513-44-0,557,3899.999,307,0.2485
SEC-BUTYLMERCAPTAN,C4H10S,513-53-1,551,3849.995,307,0.2479
1-BUTYNE,C4H6,107-00-6,440,4600,208,0.2485
"1,2-BUTADIENE",C4H6,590-19-2,443.7,4498.83,219,0.255
PROPYNE,C3H4,74-99-7,402.4,5623.538,164,0.218
"1,1,2,2-TETRACHLORO-1,2-DIFLUOROETHANE [R112]",C2Cl4F2,76-12-0,551,3445.05,358,0.273
TRANS-2-PENTENE,C5H10,0646-04-08,475,3657.832,300,0.2409
"2,2,3,3,3-PENTAFLUOROPROPANOL",C3H3F5O,0422-05-09,536.7,5230,287,0.4281
HEXYLMERCAPTAN,C6H14S,111-31-9,622,3020.002,426,0.3646
OCTYLMERCAPTAN,C8H18S,111-88-6,667.3,2500.002,505,0.4466
SULFUR TRIOXIDE,O3S,7446-11-09,490.85,8207.325,127.8,0.4121
METHYL ETHYL ETHER,C3H8O,540-67-0,437.8,4397.505,221,0.2361
"2,2,3-TRIMETHYLPENTANE",C8H18,0564-02-03,563.5,2729.696,436,0.297
FLUORINE,F2,7782-41-4,144.31,5215.198,66.2,0.0588
PROPADIENE,C3H4,463-49-0,393.9,5250,166,0.0645
"1,2-EPOXYBUTANE",C4H8O,106-88-7,520,4660.95,250,0.3021
"2,2,3,3,4,4,5,5,5-NONAFLUORO-1-PENTANOL",C5H3F9O,355-28-2,521.45,2330,450,0.6788
OZONE,O3,10028-15-6,261.05,5532,89,0.1559
"1,2-EPOXYHEXANE",C6H12O,1436-34-6,585,3303.195,360,0.318
CAPRALDEHYDE,C10H20O,112-31-2,674.2,2604.053,599,0.552
"1,1-DICHLORO TETRAFLUORO ETHANE [R114A]",C2Cl2F4,0374-07-02,418.65,3303,293.7,0.2588
1-NONYLCHLORIDE,C9H19Cl,2473-01-0,663,2307.17,581,0.5018
2-METHYLPROPANOIC ACID METHYL ESTER,C5H10O2,547-63-7,540.8,3434.918,339,0.362
TETRAMETHOXYSILANE,C4H12O4Si,681-84-5,562.8,2872.6,445,0.4425
BUTYRIC ANHYDRIDE,C8H14O3,106-31-0,639,2689.976,501,0.6663
"1,1-DIHYDROPERFLUOROHEPTANOL",C7H3F13O,375-82-6,554.65,2220,614,0.8227
"1,1-DIFLUOROETHENE",C2H2F2,75-38-7,303,4430,154,0.1506
1-TRIDECENE,C13H26,2437-56-1,674,1700,740,0.598
1-PENTADECENE,C15H30,13360-61-7,704,1450.001,850,0.682
HEXADECYLBENZENE,C22H38,1459-09-02,808,1289.999,1200,0.9525
1-PHENYLUNDECANE,C17H28,6742-54-7,764,1669.998,910,0.7082
1-PHENYLTRIDECANE,C19H32,0123-02-04,784,1499.995,1040,0.8055
"3,3-DIETHYLPENTANE",C9H20,1067-20-5,610,2669.995,484,0.3267
1-METHOXY-2-PROPANOL,C4H10O2,107-98-2,579.8,4113,279.9,0.448
"PROPIONIC ACID,BETA ETHOXY,ETHYL ESTER",C7H14O3,763-69-9,618.7,2659.781,458.3,0.5149
"1,2-EPOXY-7-OCTENE",C8H14O,19600-63-6,644.68,2732.63,450,0.3619
"TRANS-1,3-DIMETHYLCYCLOPENTANE",C7H14,1759-58-6,552,3300.155,378,0.248
"2,2-DICHLOROPROPANE",C3H6Cl2,594-20-7,536.8,4277.942,280,0.2206
ETHYL ISOBUTYRATE,C6H12O2,97-62-1,553,3049.883,421,0.4247
ETHYLENE GLYCOL MONOPROPYL ETHER,C5H12O2,2807-30-9,614.6,3649.727,364.2,0.472
"1,1,1,2-TETRAFLUOROETHANE [R134A]",C2H2F4,811-97-2,374.25,4064.146,204.1,0.3259
"1,1-DICHLORO-1-FLUOROETHANE [R141B]",C2H3Cl2F,1717-00-6,477.35,4339.75,257.3,0.2016
"2,3,4,5,6-PENTAFLUOROPHENOL",C6HF5O,771-61-9,609,4000,349.7,0.4969
2-CYCLOHEXEN-1-ONE,C6H8O,930-68-7,685,4530,307.6,0.3076
2-AMINOBIPHENYL,C12H11N,90-41-5,838,3933,592.3,0.4525
PERFLUORO-2-METHYLPENTANE,C6F14,0355-04-04,455.3,1923,550,0.4464
DIETHYLENE GLYCOL MONOETHYL ETHER ACETATE,C8H16O4,112-15-2,663,2730,546,0.7404
DIETHYLENE GLYCOL MONOBUTYL ETHER ACETATE,C10H20O4,124-17-4,693.9,2150,656,0.7837
TETRACONTANE,C40H82,4181-95-7,882.83,414.419,2250,1.684
TETRATETRACONTANE,C44H90,7098-22-8,894.37,347.545,2470,1.855
DIETHYLENETRIAMINE,C4H13N3,111-40-0,709,4300,361.1,0.4537
HEXACOSANE,C26H54,0630-01-03,817.06,806.547,1475,1.117
IODOTRIFLUOROMETHANE,CF3I,2314-97-8,396.44,3953,226,0.1775
"3,3-DIMETHYLHEXANE",C8H18,563-16-6,562,2649.649,443,0.3176
2-METHYL-2-PROPANETHIOL,C4H10S,75-66-1,523,3799.688,314,0.2187
"2,2-DIMETHYLOXIRANE",C4H8O,558-30-5,515,4691.347,243,0.2424
TRIFLUOROACETONITRILE,C2F3N,353-85-5,311.11,3618.316,202.2,0.2857
PERFLUOROBUTANE,C4F10,355-25-9,385.84,2289.945,372,0.372
"1,10-DICHLORODECANE",C10H20Cl2,2162-98-3,752.5,2072.096,681,0.5783
PHENYL ISOCYANATE,C7H5NO,103-71-9,675,4540,345.5,0.2946
"1,1-DICHLORO-2,2,2-TRIFLUOROETHANE [R123]",C2HCl2F3,306-83-2,456.85,3669.992,275.1,0.2825
"5,6-EPOXY-CIS-CYCLOOCTENE",C8H12O,19740-90-0,700.86,3396.92,390,0.3316
HEXAMETHYLENE DIISOCYANATE,C8H12N2O2,822-06-0,720.8,2860.21,513,0.6813
TRICOSANE,C23H48,638-67-5,790,947.389,1310,1.0247
"1,2-DIBROMOTETRAFLUOROETHANE",C2Br2F4,124-73-2,487,3450.116,330,0.2541
1-EICOSANOL,C20H42O,629-96-9,808,1150.039,1160,1.1571
"3,3,3-TRIFLUOROPROPYLENE",C3H3F3,677-21-4,376.2,3609,211,0.3064
2-METHYL-3-ETHYL-PENTANE,C8H18,609-26-7,567.1,2700.311,442,0.3273
PERFLUOROTETRAHYDROFURAN,C4F8O,773-14-8,399.96,2694,318,0.2989
"4,6-DIMETHYLINDAN",C11H14,1685-82-1,761,4531,510,0.3249
9-METHYLCARBAZOLE,C13H11N,1484-12-04,890,3376,571.7,0.4617
P-CHLOROPHENYLISOCYANATE,C7H4ClNO,0104-12-01,676.9,4064.29,350,0.5575
"3,4-DICHLOROPHENYLISOCYANATE",C7H3Cl2NO,102-36-3,756,3680.3,365,0.3435
HEXAMETHYLCYCLOTRISILOXANE,C6H18O3Si3,0541-05-09,554.2,2229.15,707,0.5976
DECAMETHYLCYCLOPENTASILOXANE,C10H30O5Si5,0541-02-06,617.4,1035,1216,0.6272
TETRADECANOIC ACID ETHYL ESTER,C16H32O2,0124-06-01,743.41,1454.8,950,0.7994
HEXADECANOIC ACID ETHYL ESTER,C18H36O2,628-97-7,765.18,1315.2,1060,0.8494
3-METHYL-3-ETHYLPENTANE,C8H18,1067-08-09,576.5,2809.742,455,0.3009
HEXACHLOROPROPENE,C3Cl6,1888-71-7,680,2500,522.4,0.488
"1,1-DIMETHYLINDANE",C11H14,4912-92-9,683,2994,510,0.3575
"2,3,3-TRIMETHYLPENTANE",C8H18,560-21-4,573.5,2819.875,455,0.2867
DECYL METHYL ETHER,C11H24O,7289-52-3,657.97,1934.294,666,0.5919
ENFLURANE,C3H2ClF5O,13838-16-9,475.03,2980,335,0.4285
ISOFLURANE,C3H2ClF5O,26675-46-7,467.8,3046,340,0.4003
"2,2,3-TRIMETHYLHEXANE",C9H20,16747-25-4,535,2490,511,0.7799
"1,1-DICHLORO-2,2,3,3,3-PENTAFLUOROPROPANE R225CA",C3HCl2F5,422-56-0,476.71,3060,365,0.3312
DECAMETHYLTETRASILOXANE,C10H30O3Si4,141-62-8,599.4,1264.536,1157,0.682
DODECAMETHYLPENTASILOXANE,C12H36O4Si5,141-63-9,628.4,945.362,1450,1.3232
TETRADECAMETHYLHEXASILOXANE,C14H42O5Si6,107-52-8,653.2,803.507,1808,0.8126
"1,2-DICHLORO-1,2,2-TRIFLUOROETHANE [R123A]",C2HCl2F3,354-23-4,461.7,3990,275.3,0.303
"PROPIONIC ACID, ANHYDRIDE",C6H10O3,123-62-6,625.54,2833.86,420,0.4876
PROPYLENE GLYCOL MONOMETHYL ETHER ACETATE,C6H12O3,108-65-6,597.6,3009.353,431.9,0.4849
"1,1,4,6-TETRAMETHYLINDAN",C13H18,941-60-6,733,3046,610,0.4195
"1,1,4,7-TETRAMETHYLINDAN",C13H18,1078-04-02,758,3287,610,0.3785
BENZOXAZOLE,C7H5NO,273-53-0,695,4500,345.5,0.3523
DIOCTYLAMINE,C16H35N,1120-48-5,734,1260,1087,0.8189
HEXADECAMETHYLHEPTASILOXANE,C16H48O6Si7,0541-01-05,671.8,676.851,2133,0.8827
OCTADECAMETHYLOCTASILOXANE,C18H54O7Si8,556-69-4,688.9,624.162,2466,0.9959
METHYLTRIS(TRIMETHYLSILOXY)SILANE,C10H30O3Si4,17928-28-8,596.95,1215.9,1125,0.6432
TETRAKIS(TRIMETHYLSILOXY)SILANE,C12H36O4Si5,3555-47-3,622.6,830.865,1400,0.6206
OCTADECAMETHYLCYCLONONASILOXANE,C18H54O9Si9,556-71-8,705.8,650.507,2250,0.9868
3-ETHYLHEXANE,C8H18,619-99-8,565.5,2610.132,455,0.3584
METHYL BUTYL SULFIDE,C5H12S,628-29-5,591.3,3880.747,371,0.3691
2-ETHYLHEXANALDEHYDE,C8H16O,0123-05-07,607,2580.748,473,0.5195
PIPERAZINE,C4H10N2,110-85-0,661,5800,267,0.3127
PERFLUOROOCTANE,C8F18,307-34-6,502.25,1660,717,0.6091
DIFLUOROBIS(TRIFLUOROMETHOXY)METHANE,C3F8O2,53772-78-4,372.35,2333,363,0.4176
"1,1,2,2-TETRAFLUOROETHYL-TRIFLUOROMETHYLETHER",C3HF7O,2356-61-8,387.78,2640,337,0.4223
DIFLUOROMETHOXYTRIFLUOROMETHANE,C2HF5O,3822-68-2,353.54,3326,192,0.3362
TRIFLUOROMETHOXYMETHANE,C2H3F3O,421-14-7,378.02,3588,228,0.238
2-NONANOL,C9H20O,628-99-9,650.1,2530,574.7,0.606
"1,1,1,5,5,5-HEXAFLUORO-2,4-PENTANEDIONE",C5H2F6O2,1522-22-1,485.1,2767.2,289.2,0.5132
"1,1,1,2,3,3,3-HEPTAFLUOROPROPANE [R227EA]",C3HF7,431-89-0,374.83,2911.6,274,0.3577
4-TERT-BUTYLCATECHOL,C10H14O2,98-29-3,775,3700,565.1,0.7257
"2,2,4,4,5,5-HEXAFLUORO-1,3-DIOXOLANE",C3F6O2,21297-65-4,368.07,2709,290,0.3075
HEXAFLUOROOXETANE,C3F6O,425-82-1,361.85,3030,272,0.3092
NITROGEN DIOXIDE,NO2,10102-44-0,431,10132.5,82,0.8555
"2,3,4,5,6-PENTAFLUOROTOLUENE",C7H3F5,771-56-2,566.52,3126,382.4,0.417
"3,6-DIMETHYL-1,4-DIOXANE-2,5-DIONE",C6H8O4,95-96-5,750,3400.467,390,0.613
N-(2-AMINOETHYL)ETHANOLAMINE,C4H12N2O,111-41-1,739.2,4650,335,0.4634
"1,3-DICHLORO-1,1,2,2,3-PENTAFLUOROPROPANE R225CB",C3HCl2F5,507-55-1,484.91,2980,366,0.3014
2-NORBORNENE,C7H10,498-66-8,590,4860,310.7,0.1892
PERFLUORODECANE,C10F22,307-45-9,542.35,1450,880,0.5586
PERFLUOROMETHYLPROPYLETHER,C4F10O,59426-77-6,391.7,1866,403,0.3662
PERFLUORO-3-METHYLPENTANE,C6F14,865-71-4,450,1692,555,0.4733
PERFLUOROTOLUENE,C7F8,434-64-0,534.47,2705,424.9,0.4685
DIMETHYL TEREPHTHALATE,C10H10O4,120-61-6,763.15,2749.96,530,0.6516
CYANOGEN,C2N2,460-19-5,400,5978.175,200,0.2791
3-CHLOROPHENYLISOCYANATE,C7H4ClNO,2909-38-8,712.22,4064.29,321,0.3808
TETRAFLUOROHYDRAZINE,F4N2,10036-47-2,309.35,3708,90,0.1477
6-CHLOROHEXYL ISOCYANATE,C7H12ClNO,13654-91-6,668.9,2901.18,521,0.7923
"2,2,3,4-TETRAMETHYLPENTANE",C9H20,1186-53-4,592.6,2600,492,0.3103
"2,3,3,4-TETRAMETHYLPENTANE",C9H20,16747-38-9,607.5,2719.563,487,0.31
"2,2,3,3-TETRAMETHYLPENTANE",C9H20,7154-79-2,607.5,2739.828,494,0.3005
"2,2,4,4-TETRAMETHYLPENTANE",C9H20,1070-87-7,574.6,2489.555,509,0.3099
"4,5,9,10-TETRAHYDROPYRENE",C16H14,781-17-9,900,3000,639.5,0.4551
"1,2,3,6,7,8-HEXAHYDROPYRENE",C16H16,1732-13-4,920,3610,666.6,0.4666
"1,2-EPOXYCYCLOOCTANE",C8H14O,286-62-4,693.32,3452.06,405,0.3254
"1-CHLORO-2,2-DIFLUOROETHYLENE",C2HClF2,0359-10-04,400.55,4461,197.4,0.2205
"CIS-1,2-EPOXYCYCLOPENTANE",C5H8O,285-67-6,582.16,4508.03,273,0.2507
"1,3,5-TRICHLORO-2,4,6-TRIFLUOROBENZENE",C6Cl3F3,319-88-0,684.8,3270,447.3,0.5276
DICHLORODIETHYLSILANE,C4H10Cl2Si,1719-53-5,595.75,3060,455.4,0.3169
"2,3,4,9-TETRAHYDRO-9-METHYL-1H-CARBAZOLE",C13H15N,6303-88-4,854,2709,599.6,0.5115
2-CHLOROPHENYLISOCYANATE,C7H4ClNO,3320-83-0,680.9,4064.29,334,0.5596
TRANS-PERFLUOROBICYCLO[4.3.0]NONANE,C9F16,75240-06-1,526,1680,646,0.5311
CIS-PERFLUOROBICYCLO[4.3.0]NONANE,C9F16,75262-87-2,530,1710,638,0.4647
PHENOXATHIIN,C12H8OS,262-20-4,863,3105,560.7,0.4539
"1,4-BIS(1,1-DIMETHYLETHYL)BENZENE",C14H22,1012-72-2,708,2300,723.3,0.5019
"1,4-BUTANEDIISOCYANATE",C6H8N2O2,4538-37-8,706.7,3600.16,401,0.5983
"1,8-OCTANEDIISOCYANATE",C10H16N2O2,10124-86-4,745.1,2371.02,711,0.786
"1,3-DIMETHYL ADAMANTANE",C12H20,702-79-4,708,3000,575,0.2958
ETHYL OCTYL SULFIDE,C10H22S,3698-94-0,700,2400,697.4,0.5298
CIS-5-ETHYLIDENE-2-NORBORNENE,C9H12,28304-66-7,629,3400,294,0.3118
METHYL-5-FORMYL VALERATE,C7H12O3,6654-36-0,670,3100,451,0.6916
"2,5-DIHYDROBENZO-3,4-FURAN",C8H8O,496-14-0,700,4285,360.5,0.3664
"1,1,1,2,2,3,3-HEPTAFLUORO-3-METHOXYPROPANE",C4H3F7O,0375-03-01,437.7,2481,377.5,0.424
"1,1,2,2,3-PENTAFLUOROPROPANE [R245CA]",C3H3F5,679-86-7,447.57,3925.026,256,0.3577
"1,1,1,2,2,3,3,4-OCTAFLUOROBUTANE",C4H2F8,662-35-1,431.95,2725,343.5,0.4014
DICYCLOHEXYL SULFIDE,C12H22S,7133-46-2,770,2370,694.3,0.515
2-PHENOXYMETHYLOXIRANE,C9H10O2,122-60-1,720,2950,324,0.5939
TETRAKIS(DIMETHYLAMINO)ETHYLENE,C10H24N4,996-70-3,680,2400,641,0.3861
PERFLUOROETHYLMETHYLETHER,C3F8O,665-16-7,356.85,2315,318.8,0.3449
"2-METHYL-1,3-PROPANEDIOL",C4H10O2,2163-42-0,708,5350,282,0.5869
EXO-TETRAHYDRODICYCLOPENTADIENE,C10H16,2825-83-4,698,3733,285,0.2841
"2,2,3,3-TETRAFLUOROPROPYL-1,1,1,2,3,3-HEXAFLUOROPROPYLETHER",C6H4F10O,529484-85-3,507.65,1840,528.2,0.5935
PERFLUORO-TERT.-BUTYLMETHYLETHER,C5H3F9O,66670-22-2,462.72,2366,448.1,0.4054
"2,2,3,3,5,5,6-HEPTAFLUORO-1,4-DIOXANE",C4HF7O2,34118-18-8,452.88,2866,358.5,0.3855
"4,4,5,5-TETRAFLUORO-2-TRIFLUOROMETHYL-1,3-DIOXOLANE",C4HF7O2,269716-57-6,435.06,2645,376.2,0.4229
"3,3,4,4,4-PENTAFLUORO-2-BUTANONE",C4H3F5O,374-41-4,453.03,2912,333.5,0.4148
"3,4,4,4-TETRAFLUORO-3-TRIFLUOROMETHYL-2-BUTANONE",C5H3F7O,80553-01-1,467.24,2522,409.4,0.4195